data_mohrs_salt_IAM
_audit_creation_method            
 'Olex2: 2025.05.31 svn.r86d253d1 MSC:194334810 on WIN64, Python: 3.8.10, wxWidgets: 3.2.5 for OlexSys'
_chemical_name_common              '?'
_chemical_name_systematic          '?'
_chemical_formula_moiety           'Fe H12 O6, 2(O4 S), 2(H4 N)'
_chemical_formula_sum              'Fe H20 N2 O14 S2'
_chemical_formula_weight           196.07
_chemical_melting_point            ?
_space_group_crystal_system        'monoclinic'
_space_group_IT_number             14
_space_group_name_H-M_alt          'P 1 21/c 1'
_space_group_name_Hall             '-P 2ybc'
loop_
  _space_group_symop_id
  _space_group_symop_operation_xyz
 1 +X,+Y,+Z
 2 -X,1/2+Y,1/2-Z
 3 -X,-Y,-Z
 4 +X,1/2-Y,1/2+Z

_cell_length_a                     6.2898(2)
_cell_length_b                     12.4250(3)
_cell_length_c                     9.1801(3)
_cell_angle_alpha                  90
_cell_angle_beta                   106.757(3)
_cell_angle_gamma                  90
_cell_volume                       686.97(4)
_cell_formula_units_Z              2
_exptl_crystal_size_max            0.21
_exptl_crystal_size_mid            0.33
_exptl_crystal_size_min            0.16
_diffrn_reflns_av_R_equivalents    0.0134
_diffrn_reflns_av_unetI/netI       0.0081
_diffrn_reflns_limit_h_max         14
_diffrn_reflns_limit_h_min         -14
_diffrn_reflns_limit_k_max         27
_diffrn_reflns_limit_k_min         -12
_diffrn_reflns_limit_l_max         20
_diffrn_reflns_limit_l_min         -19
_diffrn_reflns_number              58432
_diffrn_reflns_theta_max           53.03
_diffrn_reflns_theta_min           2.84
_diffrn_ambient_temperature        100.15
_diffrn_radiation_wavelength       0.71073
_reflns_number_total               8095
_refine_diff_density_max           0.47
loop_
  _atom_site_label
  _atom_site_type_symbol
  _atom_site_fract_x
  _atom_site_fract_y
  _atom_site_fract_z
  _atom_site_U_iso_or_equiv
  _atom_site_adp_type
  _atom_site_occupancy
  _atom_site_refinement_flags_posn
  _atom_site_site_symmetry_order
  _atom_site_disorder_group
 Fe1 Fe 0.5 0.5 0 0.006089 Uani 1 . 2 .
 S S 0.236369 0.369006 0.411896 0.006454 Uani 1 . 1 .
 O2 O 0.802045 0.57102 -0.001194 0.009889 Uani 1 . 1 .
 O4 O 0.120745 0.437511 0.28056 0.009342 Uani 1 . 1 .
 O5 O 0.087763 0.277505 0.419108 0.010584 Uani 1 . 1 .
 O6 O 0.444791 0.326841 0.389312 0.010625 Uani 1 . 1 .
 O3 O 0.670823 0.392427 0.179094 0.010422 Uani 1 . 1 .
 O1 O 0.529569 0.383371 -0.164314 0.010544 Uani 1 . 1 .
 H1a H 0.446032 0.398759 -0.265925 0.027114 Uani 1 . 1 .
 H1b H 0.499135 0.312113 -0.145689 0.025696 Uani 1 . 1 .
 O7 O 0.282099 0.432336 0.551778 0.013309 Uani 1 . 1 .
 N N 0.853123 0.341582 0.635741 0.010979 Uani 1 . 1 .
 H3a H 0.816768 0.411305 0.222565 0.028282 Uani 1 . 1 .
 H2a H 0.828394 0.643667 0.02488 0.026051 Uani 1 . 1 .
 H3b H 0.60104 0.380868 0.258946 0.022417 Uani 1 . 1 .
 H2b H 0.842781 0.560107 -0.095311 0.018834 Uani 1 . 1 .
 Ha H 0.866213 0.41833 0.666346 0.036117 Uani 1 . 1 .
 Hb H 0.692886 0.329099 0.568738 0.029175 Uani 1 . 1 .
 Hc H 0.954889 0.324567 0.572614 0.033989 Uani 1 . 1 .
 Hd H 0.884568 0.292406 0.725886 0.037402 Uani 1 . 1 .

loop_
  _atom_site_aniso_label
  _atom_site_aniso_U_11
  _atom_site_aniso_U_22
  _atom_site_aniso_U_33
  _atom_site_aniso_U_23
  _atom_site_aniso_U_13
  _atom_site_aniso_U_12
 Fe1 0.00681 0.00613 0.0052 0.0002 0.00153 -0.0002
 S 0.00717 0.00655 0.00554 0.0005 0.00167 0.00043
 O2 0.00996 0.00987 0.01085 -0.00072 0.00461 -0.00136
 O4 0.01049 0.00972 0.00754 0.00237 0.00216 0.0014
 O5 0.01029 0.00887 0.01324 0.0021 0.00442 -0.00064
 O6 0.00843 0.00982 0.01418 0.0008 0.00414 0.00118
 O3 0.01001 0.01173 0.00901 0.00227 0.00192 0.00063
 O1 0.01371 0.00955 0.00859 -0.00103 0.00356 -0.00021
 H1a 0.03366 0.02883 0.01941 -0.00331 0.00854 0.00186
 H1b 0.03598 0.01663 0.02793 -0.00011 0.0147 0.00146
 O7 0.01787 0.01336 0.00736 -0.00237 0.00151 0.00124
 N 0.0113 0.01112 0.01123 0.00046 0.00438 0.00018
 H3a 0.02415 0.03226 0.02629 0.00445 0.00386 0.00147
 H2a 0.02029 0.02841 0.03116 -0.00501 0.01013 -0.00773
 H3b 0.0261 0.02514 0.0201 0.00816 0.01316 0.00044
 H2b 0.02482 0.02668 0.00905 -0.00859 0.01132 -0.00566
 Ha 0.03402 0.02809 0.04285 -0.00378 0.00569 0.00424
 Hb 0.01095 0.04905 0.02077 -0.0169 -0.00617 -0.00387
 Hc 0.03214 0.04364 0.03095 0.00541 0.01667 0.00148
 Hd 0.04949 0.03607 0.03121 0.00751 0.01889 0.00537

